TITLE = U velocity
VARIABLES = "x", "y", "U"
Zone T = "BLOCK1", i=100, j=100, F=POINT


0.000   0.000   0.000
0.000   0.010   0.000
0.000   0.020   0.000
0.000   0.030   0.000
0.000   0.040   0.000
0.000   0.051   0.000
0.000   0.061   0.000
0.000   0.071   0.000
0.000   0.081   0.000
0.000   0.091   0.000
0.000   0.101   0.000
0.000   0.111   0.000
0.000   0.121   0.000
0.000   0.131   0.000
0.000   0.141   0.000
0.000   0.152   0.000
0.000   0.162   0.000
0.000   0.172   0.000
0.000   0.182   0.000
0.000   0.192   0.000
0.000   0.202   0.000
0.000   0.212   0.000
0.000   0.222   0.000
0.000   0.232   0.000
0.000   0.242   0.000
0.000   0.253   0.000
0.000   0.263   0.000
0.000   0.273   0.000
0.000   0.283   0.000
0.000   0.293   0.000
0.000   0.303   0.000
0.000   0.313   0.000
0.000   0.323   0.000
0.000   0.333   0.000
0.000   0.343   0.000
0.000   0.354   0.000
0.000   0.364   0.000
0.000   0.374   0.000
0.000   0.384   0.000
0.000   0.394   0.000
0.000   0.404   0.000
0.000   0.414   0.000
0.000   0.424   0.000
0.000   0.434   0.000
0.000   0.444   0.000
0.000   0.455   0.000
0.000   0.465   0.000
0.000   0.475   0.000
0.000   0.485   0.000
0.000   0.495   0.000
0.000   0.505   0.000
0.000   0.515   0.000
0.000   0.525   0.000
0.000   0.535   0.000
0.000   0.545   0.000
0.000   0.556   0.000
0.000   0.566   0.000
0.000   0.576   0.000
0.000   0.586   0.000
0.000   0.596   0.000
0.000   0.606   0.000
0.000   0.616   0.000
0.000   0.626   0.000
0.000   0.636   0.000
0.000   0.646   0.000
0.000   0.657   0.000
0.000   0.667   0.000
0.000   0.677   0.000
0.000   0.687   0.000
0.000   0.697   0.000
0.000   0.707   0.000
0.000   0.717   0.000
0.000   0.727   0.000
0.000   0.737   0.000
0.000   0.747   0.000
0.000   0.758   0.000
0.000   0.768   0.000
0.000   0.778   0.000
0.000   0.788   0.000
0.000   0.798   0.000
0.000   0.808   0.000
0.000   0.818   0.000
0.000   0.828   0.000
0.000   0.838   0.000
0.000   0.848   0.000
0.000   0.859   0.000
0.000   0.869   0.000
0.000   0.879   0.000
0.000   0.889   0.000
0.000   0.899   0.000
0.000   0.909   0.000
0.000   0.919   0.000
0.000   0.929   0.000
0.000   0.939   0.000
0.000   0.949   0.000
0.000   0.960   0.000
0.000   0.970   0.000
0.000   0.980   0.000
0.000   0.990   0.000
0.000   1.000   1.000
0.000   1.010   0.000
0.010   0.000   0.000
0.010   0.010   0.000
0.010   0.020   0.000
0.010   0.030   0.000
0.010   0.040   0.000
0.010   0.051   0.000
0.010   0.061   0.000
0.010   0.071   -0.000
0.010   0.081   -0.000
0.010   0.091   -0.000
0.010   0.101   -0.000
0.010   0.111   -0.000
0.010   0.121   -0.000
0.010   0.131   -0.000
0.010   0.141   -0.000
0.010   0.152   -0.000
0.010   0.162   -0.000
0.010   0.172   -0.000
0.010   0.182   -0.000
0.010   0.192   -0.000
0.010   0.202   -0.000
0.010   0.212   -0.001
0.010   0.222   -0.001
0.010   0.232   -0.001
0.010   0.242   -0.001
0.010   0.253   -0.001
0.010   0.263   -0.001
0.010   0.273   -0.001
0.010   0.283   -0.001
0.010   0.293   -0.001
0.010   0.303   -0.001
0.010   0.313   -0.001
0.010   0.323   -0.001
0.010   0.333   -0.001
0.010   0.343   -0.001
0.010   0.354   -0.001
0.010   0.364   -0.001
0.010   0.374   -0.001
0.010   0.384   -0.001
0.010   0.394   -0.001
0.010   0.404   -0.001
0.010   0.414   -0.001
0.010   0.424   -0.001
0.010   0.434   -0.001
0.010   0.444   -0.000
0.010   0.455   -0.000
0.010   0.465   -0.000
0.010   0.475   -0.000
0.010   0.485   -0.000
0.010   0.495   -0.000
0.010   0.505   -0.000
0.010   0.515   -0.000
0.010   0.525   -0.000
0.010   0.535   0.000
0.010   0.545   0.000
0.010   0.556   0.000
0.010   0.566   0.000
0.010   0.576   0.000
0.010   0.586   0.000
0.010   0.596   0.000
0.010   0.606   0.000
0.010   0.616   0.000
0.010   0.626   0.000
0.010   0.636   0.000
0.010   0.646   0.000
0.010   0.657   0.000
0.010   0.667   0.000
0.010   0.677   0.000
0.010   0.687   0.000
0.010   0.697   0.000
0.010   0.707   0.000
0.010   0.717   0.000
0.010   0.727   0.000
0.010   0.737   0.000
0.010   0.747   0.000
0.010   0.758   0.000
0.010   0.768   0.000
0.010   0.778   0.000
0.010   0.788   0.000
0.010   0.798   0.000
0.010   0.808   0.000
0.010   0.818   -0.000
0.010   0.828   -0.000
0.010   0.838   -0.000
0.010   0.848   -0.001
0.010   0.859   -0.001
0.010   0.869   -0.001
0.010   0.879   -0.002
0.010   0.889   -0.002
0.010   0.899   -0.003
0.010   0.909   -0.005
0.010   0.919   -0.006
0.010   0.929   -0.009
0.010   0.939   -0.012
0.010   0.949   -0.017
0.010   0.960   -0.025
0.010   0.970   -0.036
0.010   0.980   -0.035
0.010   0.990   0.077
0.010   1.000   1.000
0.010   1.010   0.000
0.020   0.000   0.000
0.020   0.010   0.000
0.020   0.020   0.000
0.020   0.030   0.000
0.020   0.040   0.000
0.020   0.051   0.000
0.020   0.061   0.000
0.020   0.071   -0.000
0.020   0.081   -0.000
0.020   0.091   -0.000
0.020   0.101   -0.000
0.020   0.111   -0.001
0.020   0.121   -0.001
0.020   0.131   -0.001
0.020   0.141   -0.001
0.020   0.152   -0.001
0.020   0.162   -0.001
0.020   0.172   -0.001
0.020   0.182   -0.002
0.020   0.192   -0.002
0.020   0.202   -0.002
0.020   0.212   -0.002
0.020   0.222   -0.002
0.020   0.232   -0.002
0.020   0.242   -0.002
0.020   0.253   -0.002
0.020   0.263   -0.003
0.020   0.273   -0.003
0.020   0.283   -0.003
0.020   0.293   -0.003
0.020   0.303   -0.003
0.020   0.313   -0.003
0.020   0.323   -0.003
0.020   0.333   -0.003
0.020   0.343   -0.003
0.020   0.354   -0.003
0.020   0.364   -0.003
0.020   0.374   -0.003
0.020   0.384   -0.003
0.020   0.394   -0.002
0.020   0.404   -0.002
0.020   0.414   -0.002
0.020   0.424   -0.002
0.020   0.434   -0.002
0.020   0.444   -0.002
0.020   0.455   -0.002
0.020   0.465   -0.001
0.020   0.475   -0.001
0.020   0.485   -0.001
0.020   0.495   -0.001
0.020   0.505   -0.001
0.020   0.515   -0.000
0.020   0.525   -0.000
0.020   0.535   -0.000
0.020   0.545   0.000
0.020   0.556   0.000
0.020   0.566   0.001
0.020   0.576   0.001
0.020   0.586   0.001
0.020   0.596   0.001
0.020   0.606   0.001
0.020   0.616   0.001
0.020   0.626   0.001
0.020   0.636   0.001
0.020   0.646   0.002
0.020   0.657   0.002
0.020   0.667   0.002
0.020   0.677   0.002
0.020   0.687   0.002
0.020   0.697   0.002
0.020   0.707   0.002
0.020   0.717   0.002
0.020   0.727   0.002
0.020   0.737   0.002
0.020   0.747   0.001
0.020   0.758   0.001
0.020   0.768   0.001
0.020   0.778   0.001
0.020   0.788   0.001
0.020   0.798   0.000
0.020   0.808   0.000
0.020   0.818   -0.000
0.020   0.828   -0.001
0.020   0.838   -0.001
0.020   0.848   -0.002
0.020   0.859   -0.003
0.020   0.869   -0.005
0.020   0.879   -0.006
0.020   0.889   -0.008
0.020   0.899   -0.011
0.020   0.909   -0.015
0.020   0.919   -0.019
0.020   0.929   -0.025
0.020   0.939   -0.034
0.020   0.949   -0.044
0.020   0.960   -0.055
0.020   0.970   -0.060
0.020   0.980   -0.025
0.020   0.990   0.184
0.020   1.000   1.000
0.020   1.010   0.000
0.030   0.000   0.000
0.030   0.010   0.000
0.030   0.020   0.000
0.030   0.030   0.000
0.030   0.040   0.000
0.030   0.051   0.000
0.030   0.061   -0.000
0.030   0.071   -0.000
0.030   0.081   -0.000
0.030   0.091   -0.001
0.030   0.101   -0.001
0.030   0.111   -0.001
0.030   0.121   -0.002
0.030   0.131   -0.002
0.030   0.141   -0.002
0.030   0.152   -0.002
0.030   0.162   -0.003
0.030   0.172   -0.003
0.030   0.182   -0.003
0.030   0.192   -0.004
0.030   0.202   -0.004
0.030   0.212   -0.004
0.030   0.222   -0.005
0.030   0.232   -0.005
0.030   0.242   -0.005
0.030   0.253   -0.005
0.030   0.263   -0.005
0.030   0.273   -0.006
0.030   0.283   -0.006
0.030   0.293   -0.006
0.030   0.303   -0.006
0.030   0.313   -0.006
0.030   0.323   -0.006
0.030   0.333   -0.006
0.030   0.343   -0.006
0.030   0.354   -0.006
0.030   0.364   -0.006
0.030   0.374   -0.006
0.030   0.384   -0.006
0.030   0.394   -0.005
0.030   0.404   -0.005
0.030   0.414   -0.005
0.030   0.424   -0.005
0.030   0.434   -0.004
0.030   0.444   -0.004
0.030   0.455   -0.004
0.030   0.465   -0.003
0.030   0.475   -0.003
0.030   0.485   -0.002
0.030   0.495   -0.002
0.030   0.505   -0.002
0.030   0.515   -0.001
0.030   0.525   -0.001
0.030   0.535   -0.000
0.030   0.545   0.000
0.030   0.556   0.001
0.030   0.566   0.001
0.030   0.576   0.001
0.030   0.586   0.002
0.030   0.596   0.002
0.030   0.606   0.002
0.030   0.616   0.002
0.030   0.626   0.003
0.030   0.636   0.003
0.030   0.646   0.003
0.030   0.657   0.003
0.030   0.667   0.003
0.030   0.677   0.003
0.030   0.687   0.004
0.030   0.697   0.004
0.030   0.707   0.004
0.030   0.717   0.003
0.030   0.727   0.003
0.030   0.737   0.003
0.030   0.747   0.003
0.030   0.758   0.003
0.030   0.768   0.002
0.030   0.778   0.002
0.030   0.788   0.002
0.030   0.798   0.001
0.030   0.808   0.000
0.030   0.818   -0.000
0.030   0.828   -0.002
0.030   0.838   -0.003
0.030   0.848   -0.004
0.030   0.859   -0.006
0.030   0.869   -0.009
0.030   0.879   -0.012
0.030   0.889   -0.016
0.030   0.899   -0.021
0.030   0.909   -0.027
0.030   0.919   -0.034
0.030   0.929   -0.044
0.030   0.939   -0.054
0.030   0.949   -0.065
0.030   0.960   -0.072
0.030   0.970   -0.061
0.030   0.980   0.013
0.030   0.990   0.282
0.030   1.000   1.000
0.030   1.010   0.000
0.040   0.000   0.000
0.040   0.010   0.000
0.040   0.020   0.000
0.040   0.030   0.000
0.040   0.040   0.000
0.040   0.051   0.000
0.040   0.061   -0.000
0.040   0.071   -0.001
0.040   0.081   -0.001
0.040   0.091   -0.001
0.040   0.101   -0.002
0.040   0.111   -0.002
0.040   0.121   -0.003
0.040   0.131   -0.003
0.040   0.141   -0.004
0.040   0.152   -0.004
0.040   0.162   -0.005
0.040   0.172   -0.005
0.040   0.182   -0.006
0.040   0.192   -0.006
0.040   0.202   -0.007
0.040   0.212   -0.007
0.040   0.222   -0.008
0.040   0.232   -0.008
0.040   0.242   -0.008
0.040   0.253   -0.009
0.040   0.263   -0.009
0.040   0.273   -0.010
0.040   0.283   -0.010
0.040   0.293   -0.010
0.040   0.303   -0.010
0.040   0.313   -0.010
0.040   0.323   -0.010
0.040   0.333   -0.010
0.040   0.343   -0.010
0.040   0.354   -0.010
0.040   0.364   -0.010
0.040   0.374   -0.010
0.040   0.384   -0.009
0.040   0.394   -0.009
0.040   0.404   -0.009
0.040   0.414   -0.008
0.040   0.424   -0.008
0.040   0.434   -0.007
0.040   0.444   -0.007
0.040   0.455   -0.006
0.040   0.465   -0.005
0.040   0.475   -0.005
0.040   0.485   -0.004
0.040   0.495   -0.004
0.040   0.505   -0.003
0.040   0.515   -0.002
0.040   0.525   -0.001
0.040   0.535   -0.001
0.040   0.545   -0.000
0.040   0.556   0.001
0.040   0.566   0.001
0.040   0.576   0.002
0.040   0.586   0.002
0.040   0.596   0.003
0.040   0.606   0.003
0.040   0.616   0.004
0.040   0.626   0.004
0.040   0.636   0.005
0.040   0.646   0.005
0.040   0.657   0.005
0.040   0.667   0.006
0.040   0.677   0.006
0.040   0.687   0.006
0.040   0.697   0.006
0.040   0.707   0.006
0.040   0.717   0.006
0.040   0.727   0.006
0.040   0.737   0.005
0.040   0.747   0.005
0.040   0.758   0.005
0.040   0.768   0.004
0.040   0.778   0.004
0.040   0.788   0.003
0.040   0.798   0.002
0.040   0.808   0.001
0.040   0.818   -0.000
0.040   0.828   -0.002
0.040   0.838   -0.004
0.040   0.848   -0.007
0.040   0.859   -0.010
0.040   0.869   -0.013
0.040   0.879   -0.018
0.040   0.889   -0.023
0.040   0.899   -0.030
0.040   0.909   -0.038
0.040   0.919   -0.048
0.040   0.929   -0.059
0.040   0.939   -0.070
0.040   0.949   -0.079
0.040   0.960   -0.077
0.040   0.970   -0.047
0.040   0.980   0.063
0.040   0.990   0.363
0.040   1.000   1.000
0.040   1.010   0.000
0.051   0.000   0.000
0.051   0.010   0.000
0.051   0.020   0.000
0.051   0.030   0.000
0.051   0.040   0.000
0.051   0.051   -0.000
0.051   0.061   -0.000
0.051   0.071   -0.001
0.051   0.081   -0.001
0.051   0.091   -0.002
0.051   0.101   -0.003
0.051   0.111   -0.003
0.051   0.121   -0.004
0.051   0.131   -0.005
0.051   0.141   -0.006
0.051   0.152   -0.006
0.051   0.162   -0.007
0.051   0.172   -0.008
0.051   0.182   -0.009
0.051   0.192   -0.009
0.051   0.202   -0.010
0.051   0.212   -0.011
0.051   0.222   -0.011
0.051   0.232   -0.012
0.051   0.242   -0.013
0.051   0.253   -0.013
0.051   0.263   -0.014
0.051   0.273   -0.014
0.051   0.283   -0.014
0.051   0.293   -0.015
0.051   0.303   -0.015
0.051   0.313   -0.015
0.051   0.323   -0.015
0.051   0.333   -0.015
0.051   0.343   -0.015
0.051   0.354   -0.015
0.051   0.364   -0.015
0.051   0.374   -0.014
0.051   0.384   -0.014
0.051   0.394   -0.013
0.051   0.404   -0.013
0.051   0.414   -0.012
0.051   0.424   -0.012
0.051   0.434   -0.011
0.051   0.444   -0.010
0.051   0.455   -0.009
0.051   0.465   -0.008
0.051   0.475   -0.008
0.051   0.485   -0.007
0.051   0.495   -0.006
0.051   0.505   -0.005
0.051   0.515   -0.004
0.051   0.525   -0.003
0.051   0.535   -0.002
0.051   0.545   -0.001
0.051   0.556   0.000
0.051   0.566   0.001
0.051   0.576   0.002
0.051   0.586   0.003
0.051   0.596   0.004
0.051   0.606   0.005
0.051   0.616   0.005
0.051   0.626   0.006
0.051   0.636   0.007
0.051   0.646   0.007
0.051   0.657   0.008
0.051   0.667   0.008
0.051   0.677   0.008
0.051   0.687   0.009
0.051   0.697   0.009
0.051   0.707   0.009
0.051   0.717   0.009
0.051   0.727   0.008
0.051   0.737   0.008
0.051   0.747   0.008
0.051   0.758   0.007
0.051   0.768   0.007
0.051   0.778   0.006
0.051   0.788   0.005
0.051   0.798   0.003
0.051   0.808   0.002
0.051   0.818   -0.000
0.051   0.828   -0.002
0.051   0.838   -0.005
0.051   0.848   -0.008
0.051   0.859   -0.012
0.051   0.869   -0.017
0.051   0.879   -0.023
0.051   0.889   -0.030
0.051   0.899   -0.038
0.051   0.909   -0.048
0.051   0.919   -0.059
0.051   0.929   -0.070
0.051   0.939   -0.080
0.051   0.949   -0.084
0.051   0.960   -0.072
0.051   0.970   -0.022
0.051   0.980   0.114
0.051   0.990   0.429
0.051   1.000   1.000
0.051   1.010   0.000
0.061   0.000   0.000
0.061   0.010   0.000
0.061   0.020   0.000
0.061   0.030   0.000
0.061   0.040   0.000
0.061   0.051   -0.000
0.061   0.061   -0.001
0.061   0.071   -0.002
0.061   0.081   -0.002
0.061   0.091   -0.003
0.061   0.101   -0.004
0.061   0.111   -0.005
0.061   0.121   -0.006
0.061   0.131   -0.007
0.061   0.141   -0.008
0.061   0.152   -0.009
0.061   0.162   -0.010
0.061   0.172   -0.011
0.061   0.182   -0.012
0.061   0.192   -0.013
0.061   0.202   -0.014
0.061   0.212   -0.015
0.061   0.222   -0.016
0.061   0.232   -0.016
0.061   0.242   -0.017
0.061   0.253   -0.018
0.061   0.263   -0.019
0.061   0.273   -0.019
0.061   0.283   -0.020
0.061   0.293   -0.020
0.061   0.303   -0.020
0.061   0.313   -0.021
0.061   0.323   -0.021
0.061   0.333   -0.021
0.061   0.343   -0.021
0.061   0.354   -0.020
0.061   0.364   -0.020
0.061   0.374   -0.020
0.061   0.384   -0.019
0.061   0.394   -0.019
0.061   0.404   -0.018
0.061   0.414   -0.017
0.061   0.424   -0.016
0.061   0.434   -0.015
0.061   0.444   -0.014
0.061   0.455   -0.013
0.061   0.465   -0.012
0.061   0.475   -0.011
0.061   0.485   -0.009
0.061   0.495   -0.008
0.061   0.505   -0.007
0.061   0.515   -0.005
0.061   0.525   -0.004
0.061   0.535   -0.003
0.061   0.545   -0.001
0.061   0.556   -0.000
0.061   0.566   0.001
0.061   0.576   0.002
0.061   0.586   0.004
0.061   0.596   0.005
0.061   0.606   0.006
0.061   0.616   0.007
0.061   0.626   0.008
0.061   0.636   0.009
0.061   0.646   0.009
0.061   0.657   0.010
0.061   0.667   0.011
0.061   0.677   0.011
0.061   0.687   0.011
0.061   0.697   0.012
0.061   0.707   0.012
0.061   0.717   0.012
0.061   0.727   0.012
0.061   0.737   0.011
0.061   0.747   0.011
0.061   0.758   0.010
0.061   0.768   0.009
0.061   0.778   0.008
0.061   0.788   0.007
0.061   0.798   0.005
0.061   0.808   0.003
0.061   0.818   0.001
0.061   0.828   -0.002
0.061   0.838   -0.005
0.061   0.848   -0.009
0.061   0.859   -0.014
0.061   0.869   -0.020
0.061   0.879   -0.027
0.061   0.889   -0.035
0.061   0.899   -0.045
0.061   0.909   -0.055
0.061   0.919   -0.066
0.061   0.929   -0.077
0.061   0.939   -0.084
0.061   0.949   -0.083
0.061   0.960   -0.060
0.061   0.970   0.007
0.061   0.980   0.164
0.061   0.990   0.481
0.061   1.000   1.000
0.061   1.010   0.000
0.071   0.000   0.000
0.071   0.010   0.000
0.071   0.020   0.000
0.071   0.030   0.000
0.071   0.040   -0.000
0.071   0.051   -0.001
0.071   0.061   -0.001
0.071   0.071   -0.002
0.071   0.081   -0.003
0.071   0.091   -0.004
0.071   0.101   -0.005
0.071   0.111   -0.006
0.071   0.121   -0.008
0.071   0.131   -0.009
0.071   0.141   -0.010
0.071   0.152   -0.012
0.071   0.162   -0.013
0.071   0.172   -0.014
0.071   0.182   -0.015
0.071   0.192   -0.017
0.071   0.202   -0.018
0.071   0.212   -0.019
0.071   0.222   -0.020
0.071   0.232   -0.021
0.071   0.242   -0.022
0.071   0.253   -0.023
0.071   0.263   -0.024
0.071   0.273   -0.025
0.071   0.283   -0.025
0.071   0.293   -0.026
0.071   0.303   -0.026
0.071   0.313   -0.027
0.071   0.323   -0.027
0.071   0.333   -0.027
0.071   0.343   -0.027
0.071   0.354   -0.026
0.071   0.364   -0.026
0.071   0.374   -0.026
0.071   0.384   -0.025
0.071   0.394   -0.024
0.071   0.404   -0.023
0.071   0.414   -0.022
0.071   0.424   -0.021
0.071   0.434   -0.020
0.071   0.444   -0.019
0.071   0.455   -0.017
0.071   0.465   -0.016
0.071   0.475   -0.014
0.071   0.485   -0.013
0.071   0.495   -0.011
0.071   0.505   -0.009
0.071   0.515   -0.008
0.071   0.525   -0.006
0.071   0.535   -0.004
0.071   0.545   -0.003
0.071   0.556   -0.001
0.071   0.566   0.001
0.071   0.576   0.002
0.071   0.586   0.004
0.071   0.596   0.005
0.071   0.606   0.007
0.071   0.616   0.008
0.071   0.626   0.009
0.071   0.636   0.010
0.071   0.646   0.012
0.071   0.657   0.012
0.071   0.667   0.013
0.071   0.677   0.014
0.071   0.687   0.014
0.071   0.697   0.015
0.071   0.707   0.015
0.071   0.717   0.015
0.071   0.727   0.015
0.071   0.737   0.015
0.071   0.747   0.014
0.071   0.758   0.013
0.071   0.768   0.012
0.071   0.778   0.011
0.071   0.788   0.009
0.071   0.798   0.008
0.071   0.808   0.005
0.071   0.818   0.002
0.071   0.828   -0.001
0.071   0.838   -0.005
0.071   0.848   -0.010
0.071   0.859   -0.015
0.071   0.869   -0.022
0.071   0.879   -0.029
0.071   0.889   -0.038
0.071   0.899   -0.048
0.071   0.909   -0.059
0.071   0.919   -0.070
0.071   0.929   -0.079
0.071   0.939   -0.084
0.071   0.949   -0.076
0.071   0.960   -0.044
0.071   0.970   0.038
0.071   0.980   0.209
0.071   0.990   0.524
0.071   1.000   1.000
0.071   1.010   0.000
0.081   0.000   0.000
0.081   0.010   0.000
0.081   0.020   0.000
0.081   0.030   0.000
0.081   0.040   -0.000
0.081   0.051   -0.001
0.081   0.061   -0.002
0.081   0.071   -0.003
0.081   0.081   -0.004
0.081   0.091   -0.006
0.081   0.101   -0.007
0.081   0.111   -0.008
0.081   0.121   -0.010
0.081   0.131   -0.011
0.081   0.141   -0.013
0.081   0.152   -0.015
0.081   0.162   -0.016
0.081   0.172   -0.018
0.081   0.182   -0.019
0.081   0.192   -0.021
0.081   0.202   -0.022
0.081   0.212   -0.024
0.081   0.222   -0.025
0.081   0.232   -0.027
0.081   0.242   -0.028
0.081   0.253   -0.029
0.081   0.263   -0.030
0.081   0.273   -0.031
0.081   0.283   -0.032
0.081   0.293   -0.032
0.081   0.303   -0.033
0.081   0.313   -0.033
0.081   0.323   -0.033
0.081   0.333   -0.033
0.081   0.343   -0.033
0.081   0.354   -0.033
0.081   0.364   -0.032
0.081   0.374   -0.032
0.081   0.384   -0.031
0.081   0.394   -0.030
0.081   0.404   -0.029
0.081   0.414   -0.028
0.081   0.424   -0.027
0.081   0.434   -0.025
0.081   0.444   -0.024
0.081   0.455   -0.022
0.081   0.465   -0.020
0.081   0.475   -0.018
0.081   0.485   -0.016
0.081   0.495   -0.014
0.081   0.505   -0.012
0.081   0.515   -0.010
0.081   0.525   -0.008
0.081   0.535   -0.006
0.081   0.545   -0.004
0.081   0.556   -0.002
0.081   0.566   -0.000
0.081   0.576   0.002
0.081   0.586   0.004
0.081   0.596   0.006
0.081   0.606   0.007
0.081   0.616   0.009
0.081   0.626   0.011
0.081   0.636   0.012
0.081   0.646   0.014
0.081   0.657   0.015
0.081   0.667   0.016
0.081   0.677   0.017
0.081   0.687   0.017
0.081   0.697   0.018
0.081   0.707   0.018
0.081   0.717   0.019
0.081   0.727   0.019
0.081   0.737   0.018
0.081   0.747   0.018
0.081   0.758   0.017
0.081   0.768   0.016
0.081   0.778   0.014
0.081   0.788   0.013
0.081   0.798   0.010
0.081   0.808   0.008
0.081   0.818   0.005
0.081   0.828   0.001
0.081   0.838   -0.004
0.081   0.848   -0.009
0.081   0.859   -0.015
0.081   0.869   -0.022
0.081   0.879   -0.030
0.081   0.889   -0.040
0.081   0.899   -0.050
0.081   0.909   -0.061
0.081   0.919   -0.071
0.081   0.929   -0.078
0.081   0.939   -0.079
0.081   0.949   -0.066
0.081   0.960   -0.024
0.081   0.970   0.069
0.081   0.980   0.249
0.081   0.990   0.558
0.081   1.000   1.000
0.081   1.010   0.000
0.091   0.000   0.000
0.091   0.010   0.000
0.091   0.020   0.000
0.091   0.030   -0.000
0.091   0.040   -0.001
0.091   0.051   -0.002
0.091   0.061   -0.003
0.091   0.071   -0.004
0.091   0.081   -0.006
0.091   0.091   -0.007
0.091   0.101   -0.009
0.091   0.111   -0.011
0.091   0.121   -0.012
0.091   0.131   -0.014
0.091   0.141   -0.016
0.091   0.152   -0.018
0.091   0.162   -0.020
0.091   0.172   -0.022
0.091   0.182   -0.024
0.091   0.192   -0.026
0.091   0.202   -0.027
0.091   0.212   -0.029
0.091   0.222   -0.031
0.091   0.232   -0.032
0.091   0.242   -0.034
0.091   0.253   -0.035
0.091   0.263   -0.036
0.091   0.273   -0.037
0.091   0.283   -0.038
0.091   0.293   -0.039
0.091   0.303   -0.039
0.091   0.313   -0.040
0.091   0.323   -0.040
0.091   0.333   -0.040
0.091   0.343   -0.040
0.091   0.354   -0.040
0.091   0.364   -0.039
0.091   0.374   -0.038
0.091   0.384   -0.038
0.091   0.394   -0.036
0.091   0.404   -0.035
0.091   0.414   -0.034
0.091   0.424   -0.032
0.091   0.434   -0.031
0.091   0.444   -0.029
0.091   0.455   -0.027
0.091   0.465   -0.025
0.091   0.475   -0.023
0.091   0.485   -0.020
0.091   0.495   -0.018
0.091   0.505   -0.016
0.091   0.515   -0.013
0.091   0.525   -0.011
0.091   0.535   -0.008
0.091   0.545   -0.006
0.091   0.556   -0.003
0.091   0.566   -0.001
0.091   0.576   0.001
0.091   0.586   0.004
0.091   0.596   0.006
0.091   0.606   0.008
0.091   0.616   0.010
0.091   0.626   0.012
0.091   0.636   0.014
0.091   0.646   0.016
0.091   0.657   0.017
0.091   0.667   0.018
0.091   0.677   0.020
0.091   0.687   0.021
0.091   0.697   0.021
0.091   0.707   0.022
0.091   0.717   0.022
0.091   0.727   0.022
0.091   0.737   0.022
0.091   0.747   0.022
0.091   0.758   0.021
0.091   0.768   0.020
0.091   0.778   0.018
0.091   0.788   0.016
0.091   0.798   0.014
0.091   0.808   0.011
0.091   0.818   0.007
0.091   0.828   0.003
0.091   0.838   -0.001
0.091   0.848   -0.007
0.091   0.859   -0.013
0.091   0.869   -0.021
0.091   0.879   -0.029
0.091   0.889   -0.039
0.091   0.899   -0.049
0.091   0.909   -0.059
0.091   0.919   -0.069
0.091   0.929   -0.074
0.091   0.939   -0.071
0.091   0.949   -0.052
0.091   0.960   -0.003
0.091   0.970   0.099
0.091   0.980   0.285
0.091   0.990   0.587
0.091   1.000   1.000
0.091   1.010   0.000
0.101   0.000   0.000
0.101   0.010   0.000
0.101   0.020   -0.000
0.101   0.030   -0.001
0.101   0.040   -0.001
0.101   0.051   -0.003
0.101   0.061   -0.004
0.101   0.071   -0.005
0.101   0.081   -0.007
0.101   0.091   -0.009
0.101   0.101   -0.011
0.101   0.111   -0.013
0.101   0.121   -0.015
0.101   0.131   -0.017
0.101   0.141   -0.019
0.101   0.152   -0.022
0.101   0.162   -0.024
0.101   0.172   -0.026
0.101   0.182   -0.028
0.101   0.192   -0.030
0.101   0.202   -0.032
0.101   0.212   -0.034
0.101   0.222   -0.036
0.101   0.232   -0.038
0.101   0.242   -0.040
0.101   0.253   -0.041
0.101   0.263   -0.043
0.101   0.273   -0.044
0.101   0.283   -0.045
0.101   0.293   -0.046
0.101   0.303   -0.047
0.101   0.313   -0.047
0.101   0.323   -0.047
0.101   0.333   -0.047
0.101   0.343   -0.047
0.101   0.354   -0.047
0.101   0.364   -0.046
0.101   0.374   -0.045
0.101   0.384   -0.044
0.101   0.394   -0.043
0.101   0.404   -0.042
0.101   0.414   -0.040
0.101   0.424   -0.038
0.101   0.434   -0.036
0.101   0.444   -0.034
0.101   0.455   -0.032
0.101   0.465   -0.030
0.101   0.475   -0.027
0.101   0.485   -0.025
0.101   0.495   -0.022
0.101   0.505   -0.019
0.101   0.515   -0.017
0.101   0.525   -0.014
0.101   0.535   -0.011
0.101   0.545   -0.008
0.101   0.556   -0.005
0.101   0.566   -0.002
0.101   0.576   0.000
0.101   0.586   0.003
0.101   0.596   0.006
0.101   0.606   0.008
0.101   0.616   0.011
0.101   0.626   0.013
0.101   0.636   0.015
0.101   0.646   0.017
0.101   0.657   0.019
0.101   0.667   0.021
0.101   0.677   0.022
0.101   0.687   0.024
0.101   0.697   0.025
0.101   0.707   0.025
0.101   0.717   0.026
0.101   0.727   0.026
0.101   0.737   0.026
0.101   0.747   0.026
0.101   0.758   0.025
0.101   0.768   0.024
0.101   0.778   0.022
0.101   0.788   0.020
0.101   0.798   0.018
0.101   0.808   0.015
0.101   0.818   0.011
0.101   0.828   0.007
0.101   0.838   0.002
0.101   0.848   -0.004
0.101   0.859   -0.011
0.101   0.869   -0.018
0.101   0.879   -0.027
0.101   0.889   -0.036
0.101   0.899   -0.046
0.101   0.909   -0.056
0.101   0.919   -0.064
0.101   0.929   -0.067
0.101   0.939   -0.061
0.101   0.949   -0.037
0.101   0.960   0.019
0.101   0.970   0.128
0.101   0.980   0.318
0.101   0.990   0.612
0.101   1.000   1.000
0.101   1.010   0.000
0.111   0.000   0.000
0.111   0.010   0.000
0.111   0.020   -0.000
0.111   0.030   -0.001
0.111   0.040   -0.002
0.111   0.051   -0.003
0.111   0.061   -0.005
0.111   0.071   -0.007
0.111   0.081   -0.009
0.111   0.091   -0.011
0.111   0.101   -0.013
0.111   0.111   -0.015
0.111   0.121   -0.018
0.111   0.131   -0.020
0.111   0.141   -0.023
0.111   0.152   -0.025
0.111   0.162   -0.028
0.111   0.172   -0.031
0.111   0.182   -0.033
0.111   0.192   -0.036
0.111   0.202   -0.038
0.111   0.212   -0.040
0.111   0.222   -0.042
0.111   0.232   -0.044
0.111   0.242   -0.046
0.111   0.253   -0.048
0.111   0.263   -0.050
0.111   0.273   -0.051
0.111   0.283   -0.052
0.111   0.293   -0.053
0.111   0.303   -0.054
0.111   0.313   -0.054
0.111   0.323   -0.055
0.111   0.333   -0.055
0.111   0.343   -0.054
0.111   0.354   -0.054
0.111   0.364   -0.053
0.111   0.374   -0.052
0.111   0.384   -0.051
0.111   0.394   -0.050
0.111   0.404   -0.048
0.111   0.414   -0.047
0.111   0.424   -0.045
0.111   0.434   -0.042
0.111   0.444   -0.040
0.111   0.455   -0.038
0.111   0.465   -0.035
0.111   0.475   -0.032
0.111   0.485   -0.029
0.111   0.495   -0.026
0.111   0.505   -0.023
0.111   0.515   -0.020
0.111   0.525   -0.017
0.111   0.535   -0.013
0.111   0.545   -0.010
0.111   0.556   -0.007
0.111   0.566   -0.004
0.111   0.576   -0.001
0.111   0.586   0.003
0.111   0.596   0.006
0.111   0.606   0.009
0.111   0.616   0.011
0.111   0.626   0.014
0.111   0.636   0.017
0.111   0.646   0.019
0.111   0.657   0.021
0.111   0.667   0.023
0.111   0.677   0.025
0.111   0.687   0.027
0.111   0.697   0.028
0.111   0.707   0.029
0.111   0.717   0.030
0.111   0.727   0.030
0.111   0.737   0.030
0.111   0.747   0.030
0.111   0.758   0.029
0.111   0.768   0.028
0.111   0.778   0.027
0.111   0.788   0.025
0.111   0.798   0.022
0.111   0.808   0.019
0.111   0.818   0.015
0.111   0.828   0.011
0.111   0.838   0.006
0.111   0.848   -0.000
0.111   0.859   -0.007
0.111   0.869   -0.015
0.111   0.879   -0.023
0.111   0.889   -0.032
0.111   0.899   -0.042
0.111   0.909   -0.051
0.111   0.919   -0.057
0.111   0.929   -0.058
0.111   0.939   -0.049
0.111   0.949   -0.020
0.111   0.960   0.041
0.111   0.970   0.156
0.111   0.980   0.347
0.111   0.990   0.633
0.111   1.000   1.000
0.111   1.010   0.000
0.121   0.000   0.000
0.121   0.010   -0.000
0.121   0.020   -0.001
0.121   0.030   -0.002
0.121   0.040   -0.003
0.121   0.051   -0.004
0.121   0.061   -0.006
0.121   0.071   -0.008
0.121   0.081   -0.011
0.121   0.091   -0.013
0.121   0.101   -0.016
0.121   0.111   -0.018
0.121   0.121   -0.021
0.121   0.131   -0.024
0.121   0.141   -0.027
0.121   0.152   -0.030
0.121   0.162   -0.032
0.121   0.172   -0.035
0.121   0.182   -0.038
0.121   0.192   -0.041
0.121   0.202   -0.044
0.121   0.212   -0.046
0.121   0.222   -0.049
0.121   0.232   -0.051
0.121   0.242   -0.053
0.121   0.253   -0.055
0.121   0.263   -0.057
0.121   0.273   -0.058
0.121   0.283   -0.059
0.121   0.293   -0.060
0.121   0.303   -0.061
0.121   0.313   -0.062
0.121   0.323   -0.062
0.121   0.333   -0.062
0.121   0.343   -0.062
0.121   0.354   -0.062
0.121   0.364   -0.061
0.121   0.374   -0.060
0.121   0.384   -0.059
0.121   0.394   -0.057
0.121   0.404   -0.055
0.121   0.414   -0.053
0.121   0.424   -0.051
0.121   0.434   -0.049
0.121   0.444   -0.046
0.121   0.455   -0.043
0.121   0.465   -0.040
0.121   0.475   -0.037
0.121   0.485   -0.034
0.121   0.495   -0.030
0.121   0.505   -0.027
0.121   0.515   -0.024
0.121   0.525   -0.020
0.121   0.535   -0.016